{
  "users": [
    {
      "_id": "627eeaf47dde1d2b8971ccd3",
      "username": "John",
      "email": "adeyemijohndaniels@gmail.com",
      "token": "eyJhbGciOiJIUzI1NiIsInR5cCI6IkpXVCJ9.eyJpZCI6IjYyN2VlYWY0N2RkZTFkMmI4OTcxY2NkMyIsImlhdCI6MTY1MjQ4NzAyMywiZXhwIjoxNjUzMDkxODIzfQ.zDNi6lc9XZEw8cx0QrIAETOYqOaZvUw6FvK2CpD0_rY"
    }
  ],
  "elements": [
    {
      "atomicNumber": 1,
      "symbol": "H",
      "name": "Hydrogen",
      "atomicMass": "1.00794(4)",
      "cpkHexColor": "FFFFFF",
      "electronicConfiguration": "1s1",
      "electronegativity": 2.2,
      "atomicRadius": 37,
      "ionRadius": "",
      "vanDelWaalsRadius": 120,
      "ionizationEnergy": 1312,
      "electronAffinity": -73,
      "oxidationStates": "-1, 1",
      "standardState": "gas",
      "bondingType": "diatomic",
      "meltingPoint": 14,
      "boilingPoint": 20,
      "density": 0.0000899,
      "groupBlock": "nonmetal",
      "yearDiscovered": 1766
    },
    "..."
  ]
}
